+ 0.5 1 0 cbr 500 ------- 0 0.0 1.0 0 0
- 0.5 1 0 cbr 500 ------- 0 0.0 1.0 0 0
+ 0.5 1 0 tcp 40 ------- 0 0.1 1.1 0 1
- 0.504 1 0 tcp 40 ------- 0 0.1 1.1 0 1
+ 0.51 1 0 cbr 500 ------- 0 0.0 1.0 1 2
- 0.51 1 0 cbr 500 ------- 0 0.0 1.0 1 2
r 0.514 1 0 cbr 500 ------- 0 0.0 1.0 0 0
+ 0.514 1 0 cbr 500 ------- 0 0.0 1.0 0 0
- 0.514 1 0 cbr 500 ------- 0 0.0 1.0 0 0
r 0.51432 1 0 tcp 40 ------- 0 0.1 1.1 0 1
+ 0.51432 1 0 tcp 40 ------- 0 0.1 1.1 0 1
- 0.518 1 0 tcp 40 ------- 0 0.1 1.1 0 1
+ 0.52 1 0 cbr 500 ------- 0 0.0 1.0 2 3
- 0.52 1 0 cbr 500 ------- 0 0.0 1.0 2 3
r 0.524 1 0 cbr 500 ------- 0 0.0 1.0 1 2
+ 0.524 1 0 cbr 500 ------- 0 0.0 1.0 1 2
- 0.524 1 0 cbr 500 ------- 0 0.0 1.0 1 2
r 0.528 1 0 cbr 500 ------- 0 0.0 1.0 0 0
+ 0.528 1 0 cbr 500 ------- 0 0.0 1.0 0 0
- 0.528 1 0 cbr 500 ------- 0 0.0 1.0 0 0
r 0.52832 1 0 tcp 40 ------- 0 0.1 1.1 0 1
+ 0.52832 1 0 tcp 40 ------- 0 0.1 1.1 0 1
+ 0.53 1 0 cbr 500 ------- 0 0.0 1.0 3 4
- 0.532 1 0 tcp 40 ------- 0 0.1 1.1 0 1
- 0.53232 1 0 cbr 500 ------- 0 0.0 1.0 3 4
r 0.534 1 0 cbr 500 ------- 0 0.0 1.0 2 3
+ 0.534 1 0 cbr 500 ------- 0 0.0 1.0 2 3
- 0.53632 1 0 cbr 500 ------- 0 0.0 1.0 2 3
r 0.538 1 0 cbr 500 ------- 0 0.0 1.0 1 2
+ 0.538 1 0 cbr 500 ------- 0 0.0 1.0 1 2
+ 0.54 1 0 cbr 500 ------- 0 0.0 1.0 4 5
- 0.54032 1 0 cbr 500 ------- 0 0.0 1.0 1 2
r 0.542 1 0 cbr 500 ------- 0 0.0 1.0 0 0
+ 0.542 1 0 cbr 500 ------- 0 0.0 1.0 0 0
r 0.54232 1 0 tcp 40 ------- 0 0.1 1.1 0 1
+ 0.54232 1 0 tcp 40 ------- 0 0.1 1.1 0 1
- 0.54432 1 0 cbr 500 ------- 0 0.0 1.0 4 5
r 0.54632 1 0 cbr 500 ------- 0 0.0 1.0 3 4
+ 0.54632 1 0 cbr 500 ------- 0 0.0 1.0 3 4
- 0.54832 1 0 cbr 500 ------- 0 0.0 1.0 0 0
+ 0.55 1 0 cbr 500 ------- 0 0.0 1.0 5 6
r 0.55032 1 0 cbr 500 ------- 0 0.0 1.0 2 3
+ 0.55032 1 0 cbr 500 ------- 0 0.0 1.0 2 3
- 0.55232 1 0 tcp 40 ------- 0 0.1 1.1 0 1
- 0.55264 1 0 cbr 500 ------- 0 0.0 1.0 3 4
r 0.55432 1 0 cbr 500 ------- 0 0.0 1.0 1 2
+ 0.55432 1 0 cbr 500 ------- 0 0.0 1.0 1 2
- 0.55664 1 0 cbr 500 ------- 0 0.0 1.0 5 6
r 0.55832 1 0 cbr 500 ------- 0 0.0 1.0 4 5
+ 0.55832 1 0 cbr 500 ------- 0 0.0 1.0 4 5
+ 0.56 1 0 cbr 500 ------- 0 0.0 1.0 6 7
- 0.56064 1 0 cbr 500 ------- 0 0.0 1.0 2 3
r 0.56232 1 0 cbr 500 ------- 0 0.0 1.0 0 0
+ 0.56232 1 0 cbr 500 ------- 0 0.0 1.0 0 0
r 0.56264 1 0 tcp 40 ------- 0 0.1 1.1 0 1
+ 0.56264 1 0 tcp 40 ------- 0 0.1 1.1 0 1
- 0.56464 1 0 cbr 500 ------- 0 0.0 1.0 1 2
r 0.56664 1 0 cbr 500 ------- 0 0.0 1.0 3 4
+ 0.56664 1 0 cbr 500 ------- 0 0.0 1.0 3 4
- 0.56864 1 0 cbr 500 ------- 0 0.0 1.0 4 5
+ 0.57 1 0 cbr 500 ------- 0 0.0 1.0 7 8
r 0.57064 1 0 cbr 500 ------- 0 0.0 1.0 5 6
+ 0.57064 1 0 cbr 500 ------- 0 0.0 1.0 5 6
- 0.57264 1 0 cbr 500 ------- 0 0.0 1.0 6 7
r 0.57464 1 0 cbr 500 ------- 0 0.0 1.0 2 3
+ 0.57464 1 0 cbr 500 ------- 0 0.0 1.0 2 3
- 0.57664 1 0 cbr 500 ------- 0 0.0 1.0 0 0
r 0.57864 1 0 cbr 500 ------- 0 0.0 1.0 1 2
+ 0.57864 1 0 cbr 500 ------- 0 0.0 1.0 1 2
+ 0.58 1 0 cbr 500 ------- 0 0.0 1.0 8 9
- 0.58064 1 0 tcp 40 ------- 0 0.1 1.1 0 1
- 0.58096 1 0 cbr 500 ------- 0 0.0 1.0 3 4
r 0.58264 1 0 cbr 500 ------- 0 0.0 1.0 4 5
+ 0.58264 1 0 cbr 500 ------- 0 0.0 1.0 4 5
- 0.58496 1 0 cbr 500 ------- 0 0.0 1.0 7 8
r 0.58664 1 0 cbr 500 ------- 0 0.0 1.0 6 7
+ 0.58664 1 0 cbr 500 ------- 0 0.0 1.0 6 7
- 0.58896 1 0 cbr 500 ------- 0 0.0 1.0 5 6
+ 0.59 1 0 cbr 500 ------- 0 0.0 1.0 9 10
r 0.59064 1 0 cbr 500 ------- 0 0.0 1.0 0 0
+ 0.59064 1 0 cbr 500 ------- 0 0.0 1.0 0 0
r 0.59096 1 0 tcp 40 ------- 0 0.1 1.1 0 1
+ 0.59096 1 0 tcp 40 ------- 0 0.1 1.1 0 1
- 0.59296 1 0 cbr 500 ------- 0 0.0 1.0 2 3
r 0.59496 1 0 cbr 500 ------- 0 0.0 1.0 3 4
+ 0.59496 1 0 cbr 500 ------- 0 0.0 1.0 3 4
- 0.59696 1 0 cbr 500 ------- 0 0.0 1.0 1 2
r 0.59896 1 0 cbr 500 ------- 0 0.0 1.0 7 8
+ 0.59896 1 0 cbr 500 ------- 0 0.0 1.0 7 8
+ 0.6 1 0 cbr 500 ------- 0 0.0 1.0 10 11
- 0.60096 1 0 cbr 500 ------- 0 0.0 1.0 8 9
r 0.60296 1 0 cbr 500 ------- 0 0.0 1.0 5 6
+ 0.60296 1 0 cbr 500 ------- 0 0.0 1.0 5 6
- 0.60496 1 0 cbr 500 ------- 0 0.0 1.0 4 5
r 0.60696 1 0 cbr 500 ------- 0 0.0 1.0 2 3
+ 0.60696 1 0 cbr 500 ------- 0 0.0 1.0 2 3
- 0.60896 1 0 cbr 500 ------- 0 0.0 1.0 6 7
+ 0.61 1 0 cbr 500 ------- 0 0.0 1.0 11 12
r 0.61096 1 0 cbr 500 ------- 0 0.0 1.0 1 2
+ 0.61096 1 0 cbr 500 ------- 0 0.0 1.0 1 2
- 0.61296 1 0 cbr 500 ------- 0 0.0 1.0 9 10
r 0.61496 1 0 cbr 500 ------- 0 0.0 1.0 8 9
+ 0.61496 1 0 cbr 500 ------- 0 0.0 1.0 8 9
- 0.61696 1 0 cbr 500 ------- 0 0.0 1.0 0 0
r 0.61896 1 0 cbr 500 ------- 0 0.0 1.0 4 5
+ 0.61896 1 0 cbr 500 ------- 0 0.0 1.0 4 5
+ 0.62 1 0 cbr 500 ------- 0 0.0 1.0 12 13
- 0.62096 1 0 tcp 40 ------- 0 0.1 1.1 0 1
- 0.62128 1 0 cbr 500 ------- 0 0.0 1.0 3 4
r 0.62296 1 0 cbr 500 ------- 0 0.0 1.0 6 7
+ 0.62296 1 0 cbr 500 ------- 0 0.0 1.0 6 7
- 0.62528 1 0 cbr 500 ------- 0 0.0 1.0 7 8
r 0.62696 1 0 cbr 500 ------- 0 0.0 1.0 9 10
+ 0.62696 1 0 cbr 500 ------- 0 0.0 1.0 9 10
- 0.62928 1 0 cbr 500 ------- 0 0.0 1.0 10 11
+ 0.63 1 0 cbr 500 ------- 0 0.0 1.0 13 14
r 0.63096 1 0 cbr 500 ------- 0 0.0 1.0 0 0
+ 0.63096 1 0 cbr 500 ------- 0 0.0 1.0 0 0
r 0.63128 1 0 tcp 40 ------- 0 0.1 1.1 0 1
+ 0.63128 1 0 tcp 40 ------- 0 0.1 1.1 0 1
- 0.63328 1 0 cbr 500 ------- 0 0.0 1.0 5 6
r 0.63528 1 0 cbr 500 ------- 0 0.0 1.0 3 4
+ 0.63528 1 0 cbr 500 ------- 0 0.0 1.0 3 4
- 0.63728 1 0 cbr 500 ------- 0 0.0 1.0 2 3
r 0.63928 1 0 cbr 500 ------- 0 0.0 1.0 7 8
+ 0.63928 1 0 cbr 500 ------- 0 0.0 1.0 7 8
+ 0.64 1 0 cbr 500 ------- 0 0.0 1.0 14 15
- 0.64128 1 0 cbr 500 ------- 0 0.0 1.0 11 12
r 0.64328 1 0 cbr 500 ------- 0 0.0 1.0 10 11
+ 0.64328 1 0 cbr 500 ------- 0 0.0 1.0 10 11
- 0.64528 1 0 cbr 500 ------- 0 0.0 1.0 1 2
r 0.64728 1 0 cbr 500 ------- 0 0.0 1.0 5 6
+ 0.64728 1 0 cbr 500 ------- 0 0.0 1.0 5 6
- 0.64928 1 0 cbr 500 ------- 0 0.0 1.0 8 9
+ 0.65 1 0 cbr 500 ------- 0 0.0 1.0 15 16
r 0.65128 1 0 cbr 500 ------- 0 0.0 1.0 2 3
+ 0.65128 1 0 cbr 500 ------- 0 0.0 1.0 2 3
- 0.65328 1 0 cbr 500 ------- 0 0.0 1.0 4 5
r 0.65528 1 0 cbr 500 ------- 0 0.0 1.0 11 12
+ 0.65528 1 0 cbr 500 ------- 0 0.0 1.0 11 12
- 0.65728 1 0 cbr 500 ------- 0 0.0 1.0 12 13
r 0.65928 1 0 cbr 500 ------- 0 0.0 1.0 1 2
+ 0.65928 1 0 cbr 500 ------- 0 0.0 1.0 1 2
+ 0.66 1 0 cbr 500 ------- 0 0.0 1.0 16 17
- 0.66128 1 0 cbr 500 ------- 0 0.0 1.0 6 7
r 0.66328 1 0 cbr 500 ------- 0 0.0 1.0 8 9
+ 0.66328 1 0 cbr 500 ------- 0 0.0 1.0 8 9
- 0.66528 1 0 cbr 500 ------- 0 0.0 1.0 9 10
r 0.66728 1 0 cbr 500 ------- 0 0.0 1.0 4 5
+ 0.66728 1 0 cbr 500 ------- 0 0.0 1.0 4 5
- 0.66928 1 0 cbr 500 ------- 0 0.0 1.0 13 14
+ 0.67 1 0 cbr 500 ------- 0 0.0 1.0 17 18
r 0.67128 1 0 cbr 500 ------- 0 0.0 1.0 12 13
+ 0.67128 1 0 cbr 500 ------- 0 0.0 1.0 12 13
- 0.67328 1 0 cbr 500 ------- 0 0.0 1.0 0 0
r 0.67528 1 0 cbr 500 ------- 0 0.0 1.0 6 7
+ 0.67528 1 0 cbr 500 ------- 0 0.0 1.0 6 7
- 0.67728 1 0 tcp 40 ------- 0 0.1 1.1 0 1
- 0.6776 1 0 cbr 500 ------- 0 0.0 1.0 3 4
r 0.67928 1 0 cbr 500 ------- 0 0.0 1.0 9 10
+ 0.67928 1 0 cbr 500 ------- 0 0.0 1.0 9 10
+ 0.68 1 0 cbr 500 ------- 0 0.0 1.0 18 19
- 0.6816 1 0 cbr 500 ------- 0 0.0 1.0 7 8
r 0.68328 1 0 cbr 500 ------- 0 0.0 1.0 13 14
+ 0.68328 1 0 cbr 500 ------- 0 0.0 1.0 13 14
- 0.6856 1 0 cbr 500 ------- 0 0.0 1.0 14 15
r 0.68728 1 0 cbr 500 ------- 0 0.0 1.0 0 0
+ 0.68728 1 0 cbr 500 ------- 0 0.0 1.0 0 0
r 0.6876 1 0 tcp 40 ------- 0 0.1 1.1 0 1
+ 0.6876 1 0 tcp 40 ------- 0 0.1 1.1 0 1
- 0.6896 1 0 cbr 500 ------- 0 0.0 1.0 10 11
+ 0.69 1 0 cbr 500 ------- 0 0.0 1.0 19 20
r 0.6916 1 0 cbr 500 ------- 0 0.0 1.0 3 4
+ 0.6916 1 0 cbr 500 ------- 0 0.0 1.0 3 4
- 0.6936 1 0 cbr 500 ------- 0 0.0 1.0 5 6
r 0.6956 1 0 cbr 500 ------- 0 0.0 1.0 7 8
+ 0.6956 1 0 cbr 500 ------- 0 0.0 1.0 7 8
- 0.6976 1 0 cbr 500 ------- 0 0.0 1.0 15 16
r 0.6996 1 0 cbr 500 ------- 0 0.0 1.0 14 15
+ 0.6996 1 0 cbr 500 ------- 0 0.0 1.0 14 15
+ 0.7 1 0 cbr 500 ------- 0 0.0 1.0 20 21
- 0.7016 1 0 cbr 500 ------- 0 0.0 1.0 2 3
r 0.7036 1 0 cbr 500 ------- 0 0.0 1.0 10 11
+ 0.7036 1 0 cbr 500 ------- 0 0.0 1.0 10 11
- 0.7056 1 0 cbr 500 ------- 0 0.0 1.0 11 12
r 0.7076 1 0 cbr 500 ------- 0 0.0 1.0 5 6
+ 0.7076 1 0 cbr 500 ------- 0 0.0 1.0 5 6
- 0.7096 1 0 cbr 500 ------- 0 0.0 1.0 1 2
+ 0.71 1 0 cbr 500 ------- 0 0.0 1.0 21 22
r 0.7116 1 0 cbr 500 ------- 0 0.0 1.0 15 16
+ 0.7116 1 0 cbr 500 ------- 0 0.0 1.0 15 16
- 0.7136 1 0 cbr 500 ------- 0 0.0 1.0 16 17
r 0.7156 1 0 cbr 500 ------- 0 0.0 1.0 2 3
+ 0.7156 1 0 cbr 500 ------- 0 0.0 1.0 2 3
- 0.7176 1 0 cbr 500 ------- 0 0.0 1.0 8 9
r 0.7196 1 0 cbr 500 ------- 0 0.0 1.0 11 12
+ 0.7196 1 0 cbr 500 ------- 0 0.0 1.0 11 12
+ 0.72 1 0 cbr 500 ------- 0 0.0 1.0 22 23
- 0.7216 1 0 cbr 500 ------- 0 0.0 1.0 4 5
r 0.7236 1 0 cbr 500 ------- 0 0.0 1.0 1 2
+ 0.7236 1 0 cbr 500 ------- 0 0.0 1.0 1 2
- 0.7256 1 0 cbr 500 ------- 0 0.0 1.0 17 18
r 0.7276 1 0 cbr 500 ------- 0 0.0 1.0 16 17
+ 0.7276 1 0 cbr 500 ------- 0 0.0 1.0 16 17
- 0.7296 1 0 cbr 500 ------- 0 0.0 1.0 12 13
+ 0.73 1 0 cbr 500 ------- 0 0.0 1.0 23 24
r 0.7316 1 0 cbr 500 ------- 0 0.0 1.0 8 9
+ 0.7316 1 0 cbr 500 ------- 0 0.0 1.0 8 9
- 0.7336 1 0 cbr 500 ------- 0 0.0 1.0 6 7
r 0.7356 1 0 cbr 500 ------- 0 0.0 1.0 4 5
+ 0.7356 1 0 cbr 500 ------- 0 0.0 1.0 4 5
- 0.7376 1 0 cbr 500 ------- 0 0.0 1.0 9 10
r 0.7396 1 0 cbr 500 ------- 0 0.0 1.0 17 18
+ 0.7396 1 0 cbr 500 ------- 0 0.0 1.0 17 18
+ 0.74 1 0 cbr 500 ------- 0 0.0 1.0 24 25
- 0.7416 1 0 cbr 500 ------- 0 0.0 1.0 18 19
r 0.7436 1 0 cbr 500 ------- 0 0.0 1.0 12 13
+ 0.7436 1 0 cbr 500 ------- 0 0.0 1.0 12 13
- 0.7456 1 0 cbr 500 ------- 0 0.0 1.0 13 14
r 0.7476 1 0 cbr 500 ------- 0 0.0 1.0 6 7
+ 0.7476 1 0 cbr 500 ------- 0 0.0 1.0 6 7
- 0.7496 1 0 cbr 500 ------- 0 0.0 1.0 0 0
+ 0.75 1 0 cbr 500 ------- 0 0.0 1.0 25 26
r 0.7516 1 0 cbr 500 ------- 0 0.0 1.0 9 10
+ 0.7516 1 0 cbr 500 ------- 0 0.0 1.0 9 10
- 0.7536 1 0 tcp 40 ------- 0 0.1 1.1 0 1
- 0.75392 1 0 cbr 500 ------- 0 0.0 1.0 19 20
r 0.7556 1 0 cbr 500 ------- 0 0.0 1.0 18 19
+ 0.7556 1 0 cbr 500 ------- 0 0.0 1.0 18 19
- 0.75792 1 0 cbr 500 ------- 0 0.0 1.0 3 4
r 0.7596 1 0 cbr 500 ------- 0 0.0 1.0 13 14
+ 0.7596 1 0 cbr 500 ------- 0 0.0 1.0 13 14
+ 0.76 1 0 cbr 500 ------- 0 0.0 1.0 26 27
- 0.76192 1 0 cbr 500 ------- 0 0.0 1.0 7 8
r 0.7636 1 0 cbr 500 ------- 0 0.0 1.0 0 0
+ 0.7636 1 0 cbr 500 ------- 0 0.0 1.0 0 0
r 0.76392 1 0 tcp 40 ------- 0 0.1 1.1 0 1
+ 0.76392 1 0 tcp 40 ------- 0 0.1 1.1 0 1
- 0.76592 1 0 cbr 500 ------- 0 0.0 1.0 14 15
r 0.76792 1 0 cbr 500 ------- 0 0.0 1.0 19 20
+ 0.76792 1 0 cbr 500 ------- 0 0.0 1.0 19 20
- 0.76992 1 0 cbr 500 ------- 0 0.0 1.0 20 21
+ 0.77 1 0 cbr 500 ------- 0 0.0 1.0 27 28
r 0.77192 1 0 cbr 500 ------- 0 0.0 1.0 3 4
+ 0.77192 1 0 cbr 500 ------- 0 0.0 1.0 3 4
- 0.77392 1 0 cbr 500 ------- 0 0.0 1.0 10 11
r 0.77592 1 0 cbr 500 ------- 0 0.0 1.0 7 8
+ 0.77592 1 0 cbr 500 ------- 0 0.0 1.0 7 8
- 0.77792 1 0 cbr 500 ------- 0 0.0 1.0 5 6
r 0.77992 1 0 cbr 500 ------- 0 0.0 1.0 14 15
+ 0.77992 1 0 cbr 500 ------- 0 0.0 1.0 14 15
+ 0.78 1 0 cbr 500 ------- 0 0.0 1.0 28 29
- 0.78192 1 0 cbr 500 ------- 0 0.0 1.0 21 22
r 0.78392 1 0 cbr 500 ------- 0 0.0 1.0 20 21
+ 0.78392 1 0 cbr 500 ------- 0 0.0 1.0 20 21
- 0.78592 1 0 cbr 500 ------- 0 0.0 1.0 15 16
r 0.78792 1 0 cbr 500 ------- 0 0.0 1.0 10 11
+ 0.78792 1 0 cbr 500 ------- 0 0.0 1.0 10 11
- 0.78992 1 0 cbr 500 ------- 0 0.0 1.0 2 3
+ 0.79 1 0 cbr 500 ------- 0 0.0 1.0 29 30
r 0.79192 1 0 cbr 500 ------- 0 0.0 1.0 5 6
+ 0.79192 1 0 cbr 500 ------- 0 0.0 1.0 5 6
- 0.79392 1 0 cbr 500 ------- 0 0.0 1.0 11 12
r 0.79592 1 0 cbr 500 ------- 0 0.0 1.0 21 22
+ 0.79592 1 0 cbr 500 ------- 0 0.0 1.0 21 22
- 0.79792 1 0 cbr 500 ------- 0 0.0 1.0 22 23
r 0.79992 1 0 cbr 500 ------- 0 0.0 1.0 15 16
+ 0.79992 1 0 cbr 500 ------- 0 0.0 1.0 15 16
+ 0.8 1 0 cbr 500 ------- 0 0.0 1.0 30 31
- 0.80192 1 0 cbr 500 ------- 0 0.0 1.0 1 2
r 0.80392 1 0 cbr 500 ------- 0 0.0 1.0 2 3
+ 0.80392 1 0 cbr 500 ------- 0 0.0 1.0 2 3
- 0.80592 1 0 cbr 500 ------- 0 0.0 1.0 16 17
r 0.80792 1 0 cbr 500 ------- 0 0.0 1.0 11 12
+ 0.80792 1 0 cbr 500 ------- 0 0.0 1.0 11 12
- 0.80992 1 0 cbr 500 ------- 0 0.0 1.0 23 24
+ 0.81 1 0 cbr 500 ------- 0 0.0 1.0 31 32
r 0.81192 1 0 cbr 500 ------- 0 0.0 1.0 22 23
+ 0.81192 1 0 cbr 500 ------- 0 0.0 1.0 22 23
- 0.81392 1 0 cbr 500 ------- 0 0.0 1.0 8 9
r 0.81592 1 0 cbr 500 ------- 0 0.0 1.0 1 2
+ 0.81592 1 0 cbr 500 ------- 0 0.0 1.0 1 2
- 0.81792 1 0 cbr 500 ------- 0 0.0 1.0 4 5
r 0.81992 1 0 cbr 500 ------- 0 0.0 1.0 16 17
+ 0.81992 1 0 cbr 500 ------- 0 0.0 1.0 16 17
+ 0.82 1 0 cbr 500 ------- 0 0.0 1.0 32 33
- 0.82192 1 0 cbr 500 ------- 0 0.0 1.0 17 18
r 0.82392 1 0 cbr 500 ------- 0 0.0 1.0 23 24
+ 0.82392 1 0 cbr 500 ------- 0 0.0 1.0 23 24
- 0.82592 1 0 cbr 500 ------- 0 0.0 1.0 24 25
r 0.82792 1 0 cbr 500 ------- 0 0.0 1.0 8 9
+ 0.82792 1 0 cbr 500 ------- 0 0.0 1.0 8 9
- 0.82992 1 0 cbr 500 ------- 0 0.0 1.0 12 13
+ 0.83 1 0 cbr 500 ------- 0 0.0 1.0 33 34
r 0.83192 1 0 cbr 500 ------- 0 0.0 1.0 4 5
+ 0.83192 1 0 cbr 500 ------- 0 0.0 1.0 4 5
- 0.83392 1 0 cbr 500 ------- 0 0.0 1.0 6 7
r 0.83592 1 0 cbr 500 ------- 0 0.0 1.0 17 18
+ 0.83592 1 0 cbr 500 ------- 0 0.0 1.0 17 18
- 0.83792 1 0 cbr 500 ------- 0 0.0 1.0 25 26
r 0.83992 1 0 cbr 500 ------- 0 0.0 1.0 24 25
+ 0.83992 1 0 cbr 500 ------- 0 0.0 1.0 24 25
+ 0.84 1 0 cbr 500 ------- 0 0.0 1.0 34 35
- 0.84192 1 0 cbr 500 ------- 0 0.0 1.0 9 10
r 0.84392 1 0 cbr 500 ------- 0 0.0 1.0 12 13
+ 0.84392 1 0 cbr 500 ------- 0 0.0 1.0 12 13
- 0.84592 1 0 cbr 500 ------- 0 0.0 1.0 18 19
r 0.84792 1 0 cbr 500 ------- 0 0.0 1.0 6 7
+ 0.84792 1 0 cbr 500 ------- 0 0.0 1.0 6 7
- 0.84992 1 0 cbr 500 ------- 0 0.0 1.0 13 14
+ 0.85 1 0 cbr 500 ------- 0 0.0 1.0 35 36
r 0.85192 1 0 cbr 500 ------- 0 0.0 1.0 25 26
+ 0.85192 1 0 cbr 500 ------- 0 0.0 1.0 25 26
- 0.85392 1 0 cbr 500 ------- 0 0.0 1.0 26 27
r 0.85592 1 0 cbr 500 ------- 0 0.0 1.0 9 10
+ 0.85592 1 0 cbr 500 ------- 0 0.0 1.0 9 10
- 0.85792 1 0 cbr 500 ------- 0 0.0 1.0 0 0
r 0.85992 1 0 cbr 500 ------- 0 0.0 1.0 18 19
+ 0.85992 1 0 cbr 500 ------- 0 0.0 1.0 18 19
+ 0.86 1 0 cbr 500 ------- 0 0.0 1.0 36 37
- 0.86192 1 0 tcp 40 ------- 0 0.1 1.1 0 1
- 0.86224 1 0 cbr 500 ------- 0 0.0 1.0 19 20
r 0.86392 1 0 cbr 500 ------- 0 0.0 1.0 13 14
+ 0.86392 1 0 cbr 500 ------- 0 0.0 1.0 13 14
- 0.86624 1 0 cbr 500 ------- 0 0.0 1.0 27 28
r 0.86792 1 0 cbr 500 ------- 0 0.0 1.0 26 27
+ 0.86792 1 0 cbr 500 ------- 0 0.0 1.0 26 27
+ 0.87 1 0 cbr 500 ------- 0 0.0 1.0 37 38
- 0.87024 1 0 cbr 500 ------- 0 0.0 1.0 3 4
r 0.87192 1 0 cbr 500 ------- 0 0.0 1.0 0 0
+ 0.87192 1 0 cbr 500 ------- 0 0.0 1.0 0 0
r 0.87224 1 0 tcp 40 ------- 0 0.1 1.1 0 1
+ 0.87224 1 0 tcp 40 ------- 0 0.1 1.1 0 1
- 0.87424 1 0 cbr 500 ------- 0 0.0 1.0 7 8
r 0.87624 1 0 cbr 500 ------- 0 0.0 1.0 19 20
+ 0.87624 1 0 cbr 500 ------- 0 0.0 1.0 19 20
- 0.87824 1 0 cbr 500 ------- 0 0.0 1.0 14 15
+ 0.88 1 0 cbr 500 ------- 0 0.0 1.0 38 39
r 0.88024 1 0 cbr 500 ------- 0 0.0 1.0 27 28
+ 0.88024 1 0 cbr 500 ------- 0 0.0 1.0 27 28
- 0.88224 1 0 cbr 500 ------- 0 0.0 1.0 28 29
r 0.88424 1 0 cbr 500 ------- 0 0.0 1.0 3 4
+ 0.88424 1 0 cbr 500 ------- 0 0.0 1.0 3 4
- 0.88624 1 0 cbr 500 ------- 0 0.0 1.0 20 21
r 0.88824 1 0 cbr 500 ------- 0 0.0 1.0 7 8
+ 0.88824 1 0 cbr 500 ------- 0 0.0 1.0 7 8
+ 0.89 1 0 cbr 500 ------- 0 0.0 1.0 39 40
- 0.89024 1 0 cbr 500 ------- 0 0.0 1.0 10 11
r 0.89224 1 0 cbr 500 ------- 0 0.0 1.0 14 15
+ 0.89224 1 0 cbr 500 ------- 0 0.0 1.0 14 15
- 0.89424 1 0 cbr 500 ------- 0 0.0 1.0 29 30
r 0.89624 1 0 cbr 500 ------- 0 0.0 1.0 28 29
+ 0.89624 1 0 cbr 500 ------- 0 0.0 1.0 28 29
- 0.89824 1 0 cbr 500 ------- 0 0.0 1.0 5 6
+ 0.9 1 0 cbr 500 ------- 0 0.0 1.0 40 41
r 0.90024 1 0 cbr 500 ------- 0 0.0 1.0 20 21
+ 0.90024 1 0 cbr 500 ------- 0 0.0 1.0 20 21
- 0.90224 1 0 cbr 500 ------- 0 0.0 1.0 21 22
r 0.90424 1 0 cbr 500 ------- 0 0.0 1.0 10 11
+ 0.90424 1 0 cbr 500 ------- 0 0.0 1.0 10 11
- 0.90624 1 0 cbr 500 ------- 0 0.0 1.0 15 16
r 0.90824 1 0 cbr 500 ------- 0 0.0 1.0 29 30
+ 0.90824 1 0 cbr 500 ------- 0 0.0 1.0 29 30
+ 0.91 1 0 cbr 500 ------- 0 0.0 1.0 41 42
- 0.91024 1 0 cbr 500 ------- 0 0.0 1.0 30 31
r 0.91224 1 0 cbr 500 ------- 0 0.0 1.0 5 6
+ 0.91224 1 0 cbr 500 ------- 0 0.0 1.0 5 6
- 0.91424 1 0 cbr 500 ------- 0 0.0 1.0 2 3
r 0.91624 1 0 cbr 500 ------- 0 0.0 1.0 21 22
+ 0.91624 1 0 cbr 500 ------- 0 0.0 1.0 21 22
- 0.91824 1 0 cbr 500 ------- 0 0.0 1.0 11 12
+ 0.92 1 0 cbr 500 ------- 0 0.0 1.0 42 43
r 0.92024 1 0 cbr 500 ------- 0 0.0 1.0 15 16
+ 0.92024 1 0 cbr 500 ------- 0 0.0 1.0 15 16
- 0.92224 1 0 cbr 500 ------- 0 0.0 1.0 31 32
r 0.92424 1 0 cbr 500 ------- 0 0.0 1.0 30 31
+ 0.92424 1 0 cbr 500 ------- 0 0.0 1.0 30 31
- 0.92624 1 0 cbr 500 ------- 0 0.0 1.0 22 23
r 0.92824 1 0 cbr 500 ------- 0 0.0 1.0 2 3
+ 0.92824 1 0 cbr 500 ------- 0 0.0 1.0 2 3
+ 0.93 1 0 cbr 500 ------- 0 0.0 1.0 43 44
- 0.93024 1 0 cbr 500 ------- 0 0.0 1.0 1 2
r 0.93224 1 0 cbr 500 ------- 0 0.0 1.0 11 12
+ 0.93224 1 0 cbr 500 ------- 0 0.0 1.0 11 12
- 0.93424 1 0 cbr 500 ------- 0 0.0 1.0 16 17
r 0.93624 1 0 cbr 500 ------- 0 0.0 1.0 31 32
+ 0.93624 1 0 cbr 500 ------- 0 0.0 1.0 31 32
- 0.93824 1 0 cbr 500 ------- 0 0.0 1.0 32 33
+ 0.94 1 0 cbr 500 ------- 0 0.0 1.0 44 45
r 0.94024 1 0 cbr 500 ------- 0 0.0 1.0 22 23
+ 0.94024 1 0 cbr 500 ------- 0 0.0 1.0 22 23
- 0.94224 1 0 cbr 500 ------- 0 0.0 1.0 23 24
r 0.94424 1 0 cbr 500 ------- 0 0.0 1.0 1 2
+ 0.94424 1 0 cbr 500 ------- 0 0.0 1.0 1 2
- 0.94624 1 0 cbr 500 ------- 0 0.0 1.0 8 9
r 0.94824 1 0 cbr 500 ------- 0 0.0 1.0 16 17
+ 0.94824 1 0 cbr 500 ------- 0 0.0 1.0 16 17
+ 0.95 1 0 cbr 500 ------- 0 0.0 1.0 45 46
- 0.95024 1 0 cbr 500 ------- 0 0.0 1.0 33 34
r 0.95224 1 0 cbr 500 ------- 0 0.0 1.0 32 33
+ 0.95224 1 0 cbr 500 ------- 0 0.0 1.0 32 33
- 0.95424 1 0 cbr 500 ------- 0 0.0 1.0 4 5
r 0.95624 1 0 cbr 500 ------- 0 0.0 1.0 23 24
+ 0.95624 1 0 cbr 500 ------- 0 0.0 1.0 23 24
- 0.95824 1 0 cbr 500 ------- 0 0.0 1.0 17 18
+ 0.96 1 0 cbr 500 ------- 0 0.0 1.0 46 47
r 0.96024 1 0 cbr 500 ------- 0 0.0 1.0 8 9
+ 0.96024 1 0 cbr 500 ------- 0 0.0 1.0 8 9
- 0.96224 1 0 cbr 500 ------- 0 0.0 1.0 24 25
r 0.96424 1 0 cbr 500 ------- 0 0.0 1.0 33 34
+ 0.96424 1 0 cbr 500 ------- 0 0.0 1.0 33 34
- 0.96624 1 0 cbr 500 ------- 0 0.0 1.0 34 35
r 0.96824 1 0 cbr 500 ------- 0 0.0 1.0 4 5
+ 0.96824 1 0 cbr 500 ------- 0 0.0 1.0 4 5
+ 0.97 1 0 cbr 500 ------- 0 0.0 1.0 47 48
- 0.97024 1 0 cbr 500 ------- 0 0.0 1.0 12 13
r 0.97224 1 0 cbr 500 ------- 0 0.0 1.0 17 18
+ 0.97224 1 0 cbr 500 ------- 0 0.0 1.0 17 18
- 0.97424 1 0 cbr 500 ------- 0 0.0 1.0 6 7
r 0.97624 1 0 cbr 500 ------- 0 0.0 1.0 24 25
+ 0.97624 1 0 cbr 500 ------- 0 0.0 1.0 24 25
- 0.97824 1 0 cbr 500 ------- 0 0.0 1.0 35 36
+ 0.98 1 0 cbr 500 ------- 0 0.0 1.0 48 49
r 0.98024 1 0 cbr 500 ------- 0 0.0 1.0 34 35
+ 0.98024 1 0 cbr 500 ------- 0 0.0 1.0 34 35
- 0.98224 1 0 cbr 500 ------- 0 0.0 1.0 25 26
r 0.98424 1 0 cbr 500 ------- 0 0.0 1.0 12 13
+ 0.98424 1 0 cbr 500 ------- 0 0.0 1.0 12 13
- 0.98624 1 0 cbr 500 ------- 0 0.0 1.0 9 10
r 0.98824 1 0 cbr 500 ------- 0 0.0 1.0 6 7
+ 0.98824 1 0 cbr 500 ------- 0 0.0 1.0 6 7
+ 0.99 1 0 cbr 500 ------- 0 0.0 1.0 49 50
- 0.99024 1 0 cbr 500 ------- 0 0.0 1.0 18 19
r 0.99224 1 0 cbr 500 ------- 0 0.0 1.0 35 36
+ 0.99224 1 0 cbr 500 ------- 0 0.0 1.0 35 36
- 0.99424 1 0 cbr 500 ------- 0 0.0 1.0 36 37
r 0.99624 1 0 cbr 500 ------- 0 0.0 1.0 25 26
+ 0.99624 1 0 cbr 500 ------- 0 0.0 1.0 25 26
- 0.99824 1 0 cbr 500 ------- 0 0.0 1.0 13 14
+ 1 1 0 cbr 500 ------- 0 0.0 1.0 50 51
r 1.00024 1 0 cbr 500 ------- 0 0.0 1.0 9 10
+ 1.00024 1 0 cbr 500 ------- 0 0.0 1.0 9 10
- 1.00224 1 0 cbr 500 ------- 0 0.0 1.0 26 27
r 1.00424 1 0 cbr 500 ------- 0 0.0 1.0 18 19
+ 1.00424 1 0 cbr 500 ------- 0 0.0 1.0 18 19
- 1.00624 1 0 cbr 500 ------- 0 0.0 1.0 37 38
r 1.00824 1 0 cbr 500 ------- 0 0.0 1.0 36 37
+ 1.00824 1 0 cbr 500 ------- 0 0.0 1.0 36 37
+ 1.01 1 0 cbr 500 ------- 0 0.0 1.0 51 52
d 1.01 1 0 cbr 500 ------- 0 0.0 1.0 51 52
- 1.01024 1 0 cbr 500 ------- 0 0.0 1.0 0 0
r 1.01224 1 0 cbr 500 ------- 0 0.0 1.0 13 14
+ 1.01224 1 0 cbr 500 ------- 0 0.0 1.0 13 14
- 1.01424 1 0 tcp 40 ------- 0 0.1 1.1 0 1
- 1.01456 1 0 cbr 500 ------- 0 0.0 1.0 19 20
r 1.01624 1 0 cbr 500 ------- 0 0.0 1.0 26 27
+ 1.01624 1 0 cbr 500 ------- 0 0.0 1.0 26 27
- 1.01856 1 0 cbr 500 ------- 0 0.0 1.0 38 39
+ 1.02 1 0 cbr 500 ------- 0 0.0 1.0 52 53
r 1.02024 1 0 cbr 500 ------- 0 0.0 1.0 37 38
+ 1.02024 1 0 cbr 500 ------- 0 0.0 1.0 37 38
- 1.02256 1 0 cbr 500 ------- 0 0.0 1.0 27 28
r 1.02424 1 0 cbr 500 ------- 0 0.0 1.0 0 0
+ 1.02424 1 0 cbr 500 ------- 0 0.0 1.0 0 0
r 1.02456 1 0 tcp 40 ------- 0 0.1 1.1 0 1
+ 1.02456 1 0 tcp 40 ------- 0 0.1 1.1 0 1
d 1.02456 1 0 tcp 40 ------- 0 0.1 1.1 0 1
- 1.02656 1 0 cbr 500 ------- 0 0.0 1.0 3 4
r 1.02856 1 0 cbr 500 ------- 0 0.0 1.0 19 20
+ 1.02856 1 0 cbr 500 ------- 0 0.0 1.0 19 20
+ 1.03 1 0 cbr 500 ------- 0 0.0 1.0 53 54
d 1.03 1 0 cbr 500 ------- 0 0.0 1.0 53 54
- 1.03056 1 0 cbr 500 ------- 0 0.0 1.0 7 8
r 1.03256 1 0 cbr 500 ------- 0 0.0 1.0 38 39
+ 1.03256 1 0 cbr 500 ------- 0 0.0 1.0 38 39
- 1.03456 1 0 cbr 500 ------- 0 0.0 1.0 39 40
r 1.03656 1 0 cbr 500 ------- 0 0.0 1.0 27 28
+ 1.03656 1 0 cbr 500 ------- 0 0.0 1.0 27 28
- 1.03856 1 0 cbr 500 ------- 0 0.0 1.0 14 15
+ 1.04 1 0 cbr 500 ------- 0 0.0 1.0 54 55
r 1.04056 1 0 cbr 500 ------- 0 0.0 1.0 3 4
+ 1.04056 1 0 cbr 500 ------- 0 0.0 1.0 3 4
d 1.04056 1 0 cbr 500 ------- 0 0.0 1.0 3 4
- 1.04256 1 0 cbr 500 ------- 0 0.0 1.0 28 29
r 1.04456 1 0 cbr 500 ------- 0 0.0 1.0 7 8
+ 1.04456 1 0 cbr 500 ------- 0 0.0 1.0 7 8
- 1.04656 1 0 cbr 500 ------- 0 0.0 1.0 40 41
r 1.04856 1 0 cbr 500 ------- 0 0.0 1.0 39 40
+ 1.04856 1 0 cbr 500 ------- 0 0.0 1.0 39 40
+ 1.05 1 0 cbr 500 ------- 0 0.0 1.0 55 56
d 1.05 1 0 cbr 500 ------- 0 0.0 1.0 55 56
- 1.05056 1 0 cbr 500 ------- 0 0.0 1.0 20 21
r 1.05256 1 0 cbr 500 ------- 0 0.0 1.0 14 15
+ 1.05256 1 0 cbr 500 ------- 0 0.0 1.0 14 15
- 1.05456 1 0 cbr 500 ------- 0 0.0 1.0 10 11
r 1.05656 1 0 cbr 500 ------- 0 0.0 1.0 28 29
+ 1.05656 1 0 cbr 500 ------- 0 0.0 1.0 28 29
- 1.05856 1 0 cbr 500 ------- 0 0.0 1.0 29 30
+ 1.06 1 0 cbr 500 ------- 0 0.0 1.0 56 57
r 1.06056 1 0 cbr 500 ------- 0 0.0 1.0 40 41
+ 1.06056 1 0 cbr 500 ------- 0 0.0 1.0 40 41
d 1.06056 1 0 cbr 500 ------- 0 0.0 1.0 40 41
- 1.06256 1 0 cbr 500 ------- 0 0.0 1.0 41 42
r 1.06456 1 0 cbr 500 ------- 0 0.0 1.0 20 21
+ 1.06456 1 0 cbr 500 ------- 0 0.0 1.0 20 21
- 1.06656 1 0 cbr 500 ------- 0 0.0 1.0 5 6
r 1.06856 1 0 cbr 500 ------- 0 0.0 1.0 10 11
+ 1.06856 1 0 cbr 500 ------- 0 0.0 1.0 10 11
+ 1.07 1 0 cbr 500 ------- 0 0.0 1.0 57 58
d 1.07 1 0 cbr 500 ------- 0 0.0 1.0 57 58
- 1.07056 1 0 cbr 500 ------- 0 0.0 1.0 21 22
r 1.07256 1 0 cbr 500 ------- 0 0.0 1.0 29 30
+ 1.07256 1 0 cbr 500 ------- 0 0.0 1.0 29 30
- 1.07456 1 0 cbr 500 ------- 0 0.0 1.0 42 43
r 1.07656 1 0 cbr 500 ------- 0 0.0 1.0 41 42
+ 1.07656 1 0 cbr 500 ------- 0 0.0 1.0 41 42
- 1.07856 1 0 cbr 500 ------- 0 0.0 1.0 15 16
+ 1.08 1 0 cbr 500 ------- 0 0.0 1.0 58 59
r 1.08056 1 0 cbr 500 ------- 0 0.0 1.0 5 6
+ 1.08056 1 0 cbr 500 ------- 0 0.0 1.0 5 6
d 1.08056 1 0 cbr 500 ------- 0 0.0 1.0 5 6
- 1.08256 1 0 cbr 500 ------- 0 0.0 1.0 30 31
r 1.08456 1 0 cbr 500 ------- 0 0.0 1.0 21 22
+ 1.08456 1 0 cbr 500 ------- 0 0.0 1.0 21 22
- 1.08656 1 0 cbr 500 ------- 0 0.0 1.0 2 3
r 1.08856 1 0 cbr 500 ------- 0 0.0 1.0 42 43
+ 1.08856 1 0 cbr 500 ------- 0 0.0 1.0 42 43
+ 1.09 1 0 cbr 500 ------- 0 0.0 1.0 59 60
d 1.09 1 0 cbr 500 ------- 0 0.0 1.0 59 60
- 1.09056 1 0 cbr 500 ------- 0 0.0 1.0 43 44
r 1.09256 1 0 cbr 500 ------- 0 0.0 1.0 15 16
+ 1.09256 1 0 cbr 500 ------- 0 0.0 1.0 15 16
- 1.09456 1 0 cbr 500 ------- 0 0.0 1.0 11 12
r 1.09656 1 0 cbr 500 ------- 0 0.0 1.0 30 31
+ 1.09656 1 0 cbr 500 ------- 0 0.0 1.0 30 31
- 1.09856 1 0 cbr 500 ------- 0 0.0 1.0 31 32
+ 1.1 1 0 cbr 500 ------- 0 0.0 1.0 60 61
r 1.10056 1 0 cbr 500 ------- 0 0.0 1.0 2 3
+ 1.10056 1 0 cbr 500 ------- 0 0.0 1.0 2 3
d 1.10056 1 0 cbr 500 ------- 0 0.0 1.0 2 3
- 1.10256 1 0 cbr 500 ------- 0 0.0 1.0 44 45
r 1.10456 1 0 cbr 500 ------- 0 0.0 1.0 43 44
+ 1.10456 1 0 cbr 500 ------- 0 0.0 1.0 43 44
- 1.10656 1 0 cbr 500 ------- 0 0.0 1.0 22 23
r 1.10856 1 0 cbr 500 ------- 0 0.0 1.0 11 12
+ 1.10856 1 0 cbr 500 ------- 0 0.0 1.0 11 12
+ 1.11 1 0 cbr 500 ------- 0 0.0 1.0 61 62
d 1.11 1 0 cbr 500 ------- 0 0.0 1.0 61 62
- 1.11056 1 0 cbr 500 ------- 0 0.0 1.0 1 2
r 1.11256 1 0 cbr 500 ------- 0 0.0 1.0 31 32
+ 1.11256 1 0 cbr 500 ------- 0 0.0 1.0 31 32
- 1.11456 1 0 cbr 500 ------- 0 0.0 1.0 16 17
r 1.11656 1 0 cbr 500 ------- 0 0.0 1.0 44 45
+ 1.11656 1 0 cbr 500 ------- 0 0.0 1.0 44 45
- 1.11856 1 0 cbr 500 ------- 0 0.0 1.0 45 46
+ 1.12 1 0 cbr 500 ------- 0 0.0 1.0 62 63
r 1.12056 1 0 cbr 500 ------- 0 0.0 1.0 22 23
+ 1.12056 1 0 cbr 500 ------- 0 0.0 1.0 22 23
d 1.12056 1 0 cbr 500 ------- 0 0.0 1.0 22 23
- 1.12256 1 0 cbr 500 ------- 0 0.0 1.0 32 33
r 1.12456 1 0 cbr 500 ------- 0 0.0 1.0 1 2
+ 1.12456 1 0 cbr 500 ------- 0 0.0 1.0 1 2
- 1.12656 1 0 cbr 500 ------- 0 0.0 1.0 23 24
r 1.12856 1 0 cbr 500 ------- 0 0.0 1.0 16 17
+ 1.12856 1 0 cbr 500 ------- 0 0.0 1.0 16 17
+ 1.13 1 0 cbr 500 ------- 0 0.0 1.0 63 64
d 1.13 1 0 cbr 500 ------- 0 0.0 1.0 63 64
- 1.13056 1 0 cbr 500 ------- 0 0.0 1.0 46 47
r 1.13256 1 0 cbr 500 ------- 0 0.0 1.0 45 46
+ 1.13256 1 0 cbr 500 ------- 0 0.0 1.0 45 46
- 1.13456 1 0 cbr 500 ------- 0 0.0 1.0 8 9
r 1.13656 1 0 cbr 500 ------- 0 0.0 1.0 32 33
+ 1.13656 1 0 cbr 500 ------- 0 0.0 1.0 32 33
- 1.13856 1 0 cbr 500 ------- 0 0.0 1.0 33 34
+ 1.14 1 0 cbr 500 ------- 0 0.0 1.0 64 65
r 1.14056 1 0 cbr 500 ------- 0 0.0 1.0 23 24
+ 1.14056 1 0 cbr 500 ------- 0 0.0 1.0 23 24
d 1.14056 1 0 cbr 500 ------- 0 0.0 1.0 23 24
- 1.14256 1 0 cbr 500 ------- 0 0.0 1.0 4 5
r 1.14456 1 0 cbr 500 ------- 0 0.0 1.0 46 47
+ 1.14456 1 0 cbr 500 ------- 0 0.0 1.0 46 47
- 1.14656 1 0 cbr 500 ------- 0 0.0 1.0 47 48
r 1.14856 1 0 cbr 500 ------- 0 0.0 1.0 8 9
+ 1.14856 1 0 cbr 500 ------- 0 0.0 1.0 8 9
+ 1.15 1 0 cbr 500 ------- 0 0.0 1.0 65 66
d 1.15 1 0 cbr 500 ------- 0 0.0 1.0 65 66
- 1.15056 1 0 cbr 500 ------- 0 0.0 1.0 17 18
r 1.15256 1 0 cbr 500 ------- 0 0.0 1.0 33 34
+ 1.15256 1 0 cbr 500 ------- 0 0.0 1.0 33 34
- 1.15456 1 0 cbr 500 ------- 0 0.0 1.0 24 25
r 1.15656 1 0 cbr 500 ------- 0 0.0 1.0 4 5
+ 1.15656 1 0 cbr 500 ------- 0 0.0 1.0 4 5
- 1.15856 1 0 cbr 500 ------- 0 0.0 1.0 48 49
+ 1.16 1 0 cbr 500 ------- 0 0.0 1.0 66 67
r 1.16056 1 0 cbr 500 ------- 0 0.0 1.0 47 48
+ 1.16056 1 0 cbr 500 ------- 0 0.0 1.0 47 48
d 1.16056 1 0 cbr 500 ------- 0 0.0 1.0 47 48
- 1.16256 1 0 cbr 500 ------- 0 0.0 1.0 34 35
r 1.16456 1 0 cbr 500 ------- 0 0.0 1.0 17 18
+ 1.16456 1 0 cbr 500 ------- 0 0.0 1.0 17 18
- 1.16656 1 0 cbr 500 ------- 0 0.0 1.0 12 13
r 1.16856 1 0 cbr 500 ------- 0 0.0 1.0 24 25
+ 1.16856 1 0 cbr 500 ------- 0 0.0 1.0 24 25
+ 1.17 1 0 cbr 500 ------- 0 0.0 1.0 67 68
d 1.17 1 0 cbr 500 ------- 0 0.0 1.0 67 68
- 1.17056 1 0 cbr 500 ------- 0 0.0 1.0 6 7
r 1.17256 1 0 cbr 500 ------- 0 0.0 1.0 48 49
+ 1.17256 1 0 cbr 500 ------- 0 0.0 1.0 48 49
- 1.17456 1 0 cbr 500 ------- 0 0.0 1.0 49 50
r 1.17656 1 0 cbr 500 ------- 0 0.0 1.0 34 35
+ 1.17656 1 0 cbr 500 ------- 0 0.0 1.0 34 35
- 1.17856 1 0 cbr 500 ------- 0 0.0 1.0 35 36
+ 1.18 1 0 cbr 500 ------- 0 0.0 1.0 68 69
r 1.18056 1 0 cbr 500 ------- 0 0.0 1.0 12 13
+ 1.18056 1 0 cbr 500 ------- 0 0.0 1.0 12 13
d 1.18056 1 0 cbr 500 ------- 0 0.0 1.0 12 13
- 1.18256 1 0 cbr 500 ------- 0 0.0 1.0 25 26
r 1.18456 1 0 cbr 500 ------- 0 0.0 1.0 6 7
+ 1.18456 1 0 cbr 500 ------- 0 0.0 1.0 6 7
- 1.18656 1 0 cbr 500 ------- 0 0.0 1.0 50 51
r 1.18856 1 0 cbr 500 ------- 0 0.0 1.0 49 50
+ 1.18856 1 0 cbr 500 ------- 0 0.0 1.0 49 50
+ 1.19 1 0 cbr 500 ------- 0 0.0 1.0 69 70
d 1.19 1 0 cbr 500 ------- 0 0.0 1.0 69 70
- 1.19056 1 0 cbr 500 ------- 0 0.0 1.0 9 10
r 1.19256 1 0 cbr 500 ------- 0 0.0 1.0 35 36
+ 1.19256 1 0 cbr 500 ------- 0 0.0 1.0 35 36
- 1.19456 1 0 cbr 500 ------- 0 0.0 1.0 18 19
r 1.19656 1 0 cbr 500 ------- 0 0.0 1.0 25 26
+ 1.19656 1 0 cbr 500 ------- 0 0.0 1.0 25 26
- 1.19856 1 0 cbr 500 ------- 0 0.0 1.0 36 37
+ 1.2 1 0 cbr 500 ------- 0 0.0 1.0 70 71
r 1.20056 1 0 cbr 500 ------- 0 0.0 1.0 50 51
+ 1.20056 1 0 cbr 500 ------- 0 0.0 1.0 50 51
d 1.20056 1 0 cbr 500 ------- 0 0.0 1.0 50 51
- 1.20256 1 0 cbr 500 ------- 0 0.0 1.0 13 14
r 1.20456 1 0 cbr 500 ------- 0 0.0 1.0 9 10
+ 1.20456 1 0 cbr 500 ------- 0 0.0 1.0 9 10
- 1.20656 1 0 cbr 500 ------- 0 0.0 1.0 26 27
r 1.20856 1 0 cbr 500 ------- 0 0.0 1.0 18 19
+ 1.20856 1 0 cbr 500 ------- 0 0.0 1.0 18 19
+ 1.21 1 0 cbr 500 ------- 0 0.0 1.0 71 72
d 1.21 1 0 cbr 500 ------- 0 0.0 1.0 71 72
- 1.21056 1 0 cbr 500 ------- 0 0.0 1.0 52 53
r 1.21256 1 0 cbr 500 ------- 0 0.0 1.0 36 37
+ 1.21256 1 0 cbr 500 ------- 0 0.0 1.0 36 37
- 1.21456 1 0 cbr 500 ------- 0 0.0 1.0 37 38
r 1.21656 1 0 cbr 500 ------- 0 0.0 1.0 13 14
+ 1.21656 1 0 cbr 500 ------- 0 0.0 1.0 13 14
- 1.21856 1 0 cbr 500 ------- 0 0.0 1.0 0 0
+ 1.22 1 0 cbr 500 ------- 0 0.0 1.0 72 73
r 1.22056 1 0 cbr 500 ------- 0 0.0 1.0 26 27
+ 1.22056 1 0 cbr 500 ------- 0 0.0 1.0 26 27
d 1.22056 1 0 cbr 500 ------- 0 0.0 1.0 26 27
- 1.22256 1 0 cbr 500 ------- 0 0.0 1.0 19 20
r 1.22456 1 0 cbr 500 ------- 0 0.0 1.0 52 53
+ 1.22456 1 0 cbr 500 ------- 0 0.0 1.0 52 53
- 1.22656 1 0 cbr 500 ------- 0 0.0 1.0 38 39
r 1.22856 1 0 cbr 500 ------- 0 0.0 1.0 37 38
+ 1.22856 1 0 cbr 500 ------- 0 0.0 1.0 37 38
+ 1.23 1 0 cbr 500 ------- 0 0.0 1.0 73 74
d 1.23 1 0 cbr 500 ------- 0 0.0 1.0 73 74
- 1.23056 1 0 cbr 500 ------- 0 0.0 1.0 27 28
r 1.23256 1 0 cbr 500 ------- 0 0.0 1.0 0 0
+ 1.23256 1 0 cbr 500 ------- 0 0.0 1.0 0 0
- 1.23456 1 0 cbr 500 ------- 0 0.0 1.0 54 55
r 1.23656 1 0 cbr 500 ------- 0 0.0 1.0 19 20
+ 1.23656 1 0 cbr 500 ------- 0 0.0 1.0 19 20
- 1.23856 1 0 cbr 500 ------- 0 0.0 1.0 7 8
+ 1.24 1 0 cbr 500 ------- 0 0.0 1.0 74 75
r 1.24056 1 0 cbr 500 ------- 0 0.0 1.0 38 39
+ 1.24056 1 0 cbr 500 ------- 0 0.0 1.0 38 39